# LAMMPS data file written by OVITO Basic 3.11.3

2000 atoms
2 atom types

0.0 29.5405 xlo xhi
0.0 25.5825 ylo yhi
0.0 29.015 zlo zhi

Masses

1 180.948  # Ta
2 14.001  # N

Atoms  # atomic

1 1 0.0 0.0 1.45075
2 1 0.0 0.0 4.35225
3 1 2.95405 0.0 1.45075
4 1 2.95405 0.0 4.35225
5 1 1.477025 2.55825 1.45075
6 1 1.477025 2.55825 4.35225
7 1 4.431075 2.55825 1.45075
8 1 4.431075 2.55825 4.35225
9 2 1.477025 0.852664725 0.0
10 2 1.477025 0.852664725 2.9015
11 2 0.0 3.410914725 0.0
12 2 0.0 3.410914725 2.9015
13 2 4.431075 0.852664725 0.0
14 2 4.431075 0.852664725 2.9015
15 2 2.95405 3.410914725 0.0
16 2 2.95405 3.410914725 2.9015
17 1 5.9081 0.0 1.45075
18 1 5.9081 0.0 4.35225
19 1 8.86215 0.0 1.45075
20 1 8.86215 0.0 4.35225
21 1 7.385125 2.55825 1.45075
22 1 7.385125 2.55825 4.35225
23 1 10.339175 2.55825 1.45075
24 1 10.339175 2.55825 4.35225
25 2 7.385125 0.852664725 0.0
26 2 7.385125 0.852664725 2.9015
27 2 5.9081 3.410914725 0.0
28 2 5.9081 3.410914725 2.9015
29 2 10.339175 0.852664725 0.0
30 2 10.339175 0.852664725 2.9015
31 2 8.86215 3.410914725 0.0
32 2 8.86215 3.410914725 2.9015
33 1 11.8162 0.0 1.45075
34 1 11.8162 0.0 4.35225
35 1 14.77025 0.0 1.45075
36 1 14.77025 0.0 4.35225
37 1 13.293225 2.55825 1.45075
38 1 13.293225 2.55825 4.35225
39 1 16.247275 2.55825 1.45075
40 1 16.247275 2.55825 4.35225
41 2 13.293225 0.852664725 0.0
42 2 13.293225 0.852664725 2.9015
43 2 11.8162 3.410914725 0.0
44 2 11.8162 3.410914725 2.9015
45 2 16.247275 0.852664725 0.0
46 2 16.247275 0.852664725 2.9015
47 2 14.77025 3.410914725 0.0
48 2 14.77025 3.410914725 2.9015
49 1 17.7243 0.0 1.45075
50 1 17.7243 0.0 4.35225
51 1 20.67835 0.0 1.45075
52 1 20.67835 0.0 4.35225
53 1 19.201325 2.55825 1.45075
54 1 19.201325 2.55825 4.35225
55 1 22.155375 2.55825 1.45075
56 1 22.155375 2.55825 4.35225
57 2 19.201325 0.852664725 0.0
58 2 19.201325 0.852664725 2.9015
59 2 17.7243 3.410914725 0.0
60 2 17.7243 3.410914725 2.9015
61 2 22.155375 0.852664725 0.0
62 2 22.155375 0.852664725 2.9015
63 2 20.67835 3.410914725 0.0
64 2 20.67835 3.410914725 2.9015
65 1 23.6324 0.0 1.45075
66 1 23.6324 0.0 4.35225
67 1 26.58645 0.0 1.45075
68 1 26.58645 0.0 4.35225
69 1 25.109425 2.55825 1.45075
70 1 25.109425 2.55825 4.35225
71 1 28.063475 2.55825 1.45075
72 1 28.063475 2.55825 4.35225
73 2 25.109425 0.852664725 0.0
74 2 25.109425 0.852664725 2.9015
75 2 23.6324 3.410914725 0.0
76 2 23.6324 3.410914725 2.9015
77 2 28.063475 0.852664725 0.0
78 2 28.063475 0.852664725 2.9015
79 2 26.58645 3.410914725 0.0
80 2 26.58645 3.410914725 2.9015
81 1 0.0 5.1165 1.45075
82 1 0.0 5.1165 4.35225
83 1 2.95405 5.1165 1.45075
84 1 2.95405 5.1165 4.35225
85 1 1.477025 7.67475 1.45075
86 1 1.477025 7.67475 4.35225
87 1 4.431075 7.67475 1.45075
88 1 4.431075 7.67475 4.35225
89 2 1.477025 5.969164725 0.0
90 2 1.477025 5.969164725 2.9015
91 2 0.0 8.527414725 0.0
92 2 0.0 8.527414725 2.9015
93 2 4.431075 5.969164725 0.0
94 2 4.431075 5.969164725 2.9015
95 2 2.95405 8.527414725 0.0
96 2 2.95405 8.527414725 2.9015
97 1 5.9081 5.1165 1.45075
98 1 5.9081 5.1165 4.35225
99 1 8.86215 5.1165 1.45075
100 1 8.86215 5.1165 4.35225
101 1 7.385125 7.67475 1.45075
102 1 7.385125 7.67475 4.35225
103 1 10.339175 7.67475 1.45075
104 1 10.339175 7.67475 4.35225
105 2 7.385125 5.969164725 0.0
106 2 7.385125 5.969164725 2.9015
107 2 5.9081 8.527414725 0.0
108 2 5.9081 8.527414725 2.9015
109 2 10.339175 5.969164725 0.0
110 2 10.339175 5.969164725 2.9015
111 2 8.86215 8.527414725 0.0
112 2 8.86215 8.527414725 2.9015
113 1 11.8162 5.1165 1.45075
114 1 11.8162 5.1165 4.35225
115 1 14.77025 5.1165 1.45075
116 1 14.77025 5.1165 4.35225
117 1 13.293225 7.67475 1.45075
118 1 13.293225 7.67475 4.35225
119 1 16.247275 7.67475 1.45075
120 1 16.247275 7.67475 4.35225
121 2 13.293225 5.969164725 0.0
122 2 13.293225 5.969164725 2.9015
123 2 11.8162 8.527414725 0.0
124 2 11.8162 8.527414725 2.9015
125 2 16.247275 5.969164725 0.0
126 2 16.247275 5.969164725 2.9015
127 2 14.77025 8.527414725 0.0
128 2 14.77025 8.527414725 2.9015
129 1 17.7243 5.1165 1.45075
130 1 17.7243 5.1165 4.35225
131 1 20.67835 5.1165 1.45075
132 1 20.67835 5.1165 4.35225
133 1 19.201325 7.67475 1.45075
134 1 19.201325 7.67475 4.35225
135 1 22.155375 7.67475 1.45075
136 1 22.155375 7.67475 4.35225
137 2 19.201325 5.969164725 0.0
138 2 19.201325 5.969164725 2.9015
139 2 17.7243 8.527414725 0.0
140 2 17.7243 8.527414725 2.9015
141 2 22.155375 5.969164725 0.0
142 2 22.155375 5.969164725 2.9015
143 2 20.67835 8.527414725 0.0
144 2 20.67835 8.527414725 2.9015
145 1 23.6324 5.1165 1.45075
146 1 23.6324 5.1165 4.35225
147 1 26.58645 5.1165 1.45075
148 1 26.58645 5.1165 4.35225
149 1 25.109425 7.67475 1.45075
150 1 25.109425 7.67475 4.35225
151 1 28.063475 7.67475 1.45075
152 1 28.063475 7.67475 4.35225
153 2 25.109425 5.969164725 0.0
154 2 25.109425 5.969164725 2.9015
155 2 23.6324 8.527414725 0.0
156 2 23.6324 8.527414725 2.9015
157 2 28.063475 5.969164725 0.0
158 2 28.063475 5.969164725 2.9015
159 2 26.58645 8.527414725 0.0
160 2 26.58645 8.527414725 2.9015
161 1 0.0 10.233 1.45075
162 1 0.0 10.233 4.35225
163 1 2.95405 10.233 1.45075
164 1 2.95405 10.233 4.35225
165 1 1.477025 12.79125 1.45075
166 1 1.477025 12.79125 4.35225
167 1 4.431075 12.79125 1.45075
168 1 4.431075 12.79125 4.35225
169 2 1.477025 11.085664725 0.0
170 2 1.477025 11.085664725 2.9015
171 2 0.0 13.643914725 0.0
172 2 0.0 13.643914725 2.9015
173 2 4.431075 11.085664725 0.0
174 2 4.431075 11.085664725 2.9015
175 2 2.95405 13.643914725 0.0
176 2 2.95405 13.643914725 2.9015
177 1 5.9081 10.233 1.45075
178 1 5.9081 10.233 4.35225
179 1 8.86215 10.233 1.45075
180 1 8.86215 10.233 4.35225
181 1 7.385125 12.79125 1.45075
182 1 7.385125 12.79125 4.35225
183 1 10.339175 12.79125 1.45075
184 1 10.339175 12.79125 4.35225
185 2 7.385125 11.085664725 0.0
186 2 7.385125 11.085664725 2.9015
187 2 5.9081 13.643914725 0.0
188 2 5.9081 13.643914725 2.9015
189 2 10.339175 11.085664725 0.0
190 2 10.339175 11.085664725 2.9015
191 2 8.86215 13.643914725 0.0
192 2 8.86215 13.643914725 2.9015
193 1 11.8162 10.233 1.45075
194 1 11.8162 10.233 4.35225
195 1 14.77025 10.233 1.45075
196 1 14.77025 10.233 4.35225
197 1 13.293225 12.79125 1.45075
198 1 13.293225 12.79125 4.35225
199 1 16.247275 12.79125 1.45075
200 1 16.247275 12.79125 4.35225
201 2 13.293225 11.085664725 0.0
202 2 13.293225 11.085664725 2.9015
203 2 11.8162 13.643914725 0.0
204 2 11.8162 13.643914725 2.9015
205 2 16.247275 11.085664725 0.0
206 2 16.247275 11.085664725 2.9015
207 2 14.77025 13.643914725 0.0
208 2 14.77025 13.643914725 2.9015
209 1 17.7243 10.233 1.45075
210 1 17.7243 10.233 4.35225
211 1 20.67835 10.233 1.45075
212 1 20.67835 10.233 4.35225
213 1 19.201325 12.79125 1.45075
214 1 19.201325 12.79125 4.35225
215 1 22.155375 12.79125 1.45075
216 1 22.155375 12.79125 4.35225
217 2 19.201325 11.085664725 0.0
218 2 19.201325 11.085664725 2.9015
219 2 17.7243 13.643914725 0.0
220 2 17.7243 13.643914725 2.9015
221 2 22.155375 11.085664725 0.0
222 2 22.155375 11.085664725 2.9015
223 2 20.67835 13.643914725 0.0
224 2 20.67835 13.643914725 2.9015
225 1 23.6324 10.233 1.45075
226 1 23.6324 10.233 4.35225
227 1 26.58645 10.233 1.45075
228 1 26.58645 10.233 4.35225
229 1 25.109425 12.79125 1.45075
230 1 25.109425 12.79125 4.35225
231 1 28.063475 12.79125 1.45075
232 1 28.063475 12.79125 4.35225
233 2 25.109425 11.085664725 0.0
234 2 25.109425 11.085664725 2.9015
235 2 23.6324 13.643914725 0.0
236 2 23.6324 13.643914725 2.9015
237 2 28.063475 11.085664725 0.0
238 2 28.063475 11.085664725 2.9015
239 2 26.58645 13.643914725 0.0
240 2 26.58645 13.643914725 2.9015
241 1 0.0 15.3495 1.45075
242 1 0.0 15.3495 4.35225
243 1 2.95405 15.3495 1.45075
244 1 2.95405 15.3495 4.35225
245 1 1.477025 17.90775 1.45075
246 1 1.477025 17.90775 4.35225
247 1 4.431075 17.90775 1.45075
248 1 4.431075 17.90775 4.35225
249 2 1.477025 16.202164725 0.0
250 2 1.477025 16.202164725 2.9015
251 2 0.0 18.760414725 0.0
252 2 0.0 18.760414725 2.9015
253 2 4.431075 16.202164725 0.0
254 2 4.431075 16.202164725 2.9015
255 2 2.95405 18.760414725 0.0
256 2 2.95405 18.760414725 2.9015
257 1 5.9081 15.3495 1.45075
258 1 5.9081 15.3495 4.35225
259 1 8.86215 15.3495 1.45075
260 1 8.86215 15.3495 4.35225
261 1 7.385125 17.90775 1.45075
262 1 7.385125 17.90775 4.35225
263 1 10.339175 17.90775 1.45075
264 1 10.339175 17.90775 4.35225
265 2 7.385125 16.202164725 0.0
266 2 7.385125 16.202164725 2.9015
267 2 5.9081 18.760414725 0.0
268 2 5.9081 18.760414725 2.9015
269 2 10.339175 16.202164725 0.0
270 2 10.339175 16.202164725 2.9015
271 2 8.86215 18.760414725 0.0
272 2 8.86215 18.760414725 2.9015
273 1 11.8162 15.3495 1.45075
274 1 11.8162 15.3495 4.35225
275 1 14.77025 15.3495 1.45075
276 1 14.77025 15.3495 4.35225
277 1 13.293225 17.90775 1.45075
278 1 13.293225 17.90775 4.35225
279 1 16.247275 17.90775 1.45075
280 1 16.247275 17.90775 4.35225
281 2 13.293225 16.202164725 0.0
282 2 13.293225 16.202164725 2.9015
283 2 11.8162 18.760414725 0.0
284 2 11.8162 18.760414725 2.9015
285 2 16.247275 16.202164725 0.0
286 2 16.247275 16.202164725 2.9015
287 2 14.77025 18.760414725 0.0
288 2 14.77025 18.760414725 2.9015
289 1 17.7243 15.3495 1.45075
290 1 17.7243 15.3495 4.35225
291 1 20.67835 15.3495 1.45075
292 1 20.67835 15.3495 4.35225
293 1 19.201325 17.90775 1.45075
294 1 19.201325 17.90775 4.35225
295 1 22.155375 17.90775 1.45075
296 1 22.155375 17.90775 4.35225
297 2 19.201325 16.202164725 0.0
298 2 19.201325 16.202164725 2.9015
299 2 17.7243 18.760414725 0.0
300 2 17.7243 18.760414725 2.9015
301 2 22.155375 16.202164725 0.0
302 2 22.155375 16.202164725 2.9015
303 2 20.67835 18.760414725 0.0
304 2 20.67835 18.760414725 2.9015
305 1 23.6324 15.3495 1.45075
306 1 23.6324 15.3495 4.35225
307 1 26.58645 15.3495 1.45075
308 1 26.58645 15.3495 4.35225
309 1 25.109425 17.90775 1.45075
310 1 25.109425 17.90775 4.35225
311 1 28.063475 17.90775 1.45075
312 1 28.063475 17.90775 4.35225
313 2 25.109425 16.202164725 0.0
314 2 25.109425 16.202164725 2.9015
315 2 23.6324 18.760414725 0.0
316 2 23.6324 18.760414725 2.9015
317 2 28.063475 16.202164725 0.0
318 2 28.063475 16.202164725 2.9015
319 2 26.58645 18.760414725 0.0
320 2 26.58645 18.760414725 2.9015
321 1 0.0 20.466 1.45075
322 1 0.0 20.466 4.35225
323 1 2.95405 20.466 1.45075
324 1 2.95405 20.466 4.35225
325 1 1.477025 23.02425 1.45075
326 1 1.477025 23.02425 4.35225
327 1 4.431075 23.02425 1.45075
328 1 4.431075 23.02425 4.35225
329 2 1.477025 21.318664725 0.0
330 2 1.477025 21.318664725 2.9015
331 2 0.0 23.876914725 0.0
332 2 0.0 23.876914725 2.9015
333 2 4.431075 21.318664725 0.0
334 2 4.431075 21.318664725 2.9015
335 2 2.95405 23.876914725 0.0
336 2 2.95405 23.876914725 2.9015
337 1 5.9081 20.466 1.45075
338 1 5.9081 20.466 4.35225
339 1 8.86215 20.466 1.45075
340 1 8.86215 20.466 4.35225
341 1 7.385125 23.02425 1.45075
342 1 7.385125 23.02425 4.35225
343 1 10.339175 23.02425 1.45075
344 1 10.339175 23.02425 4.35225
345 2 7.385125 21.318664725 0.0
346 2 7.385125 21.318664725 2.9015
347 2 5.9081 23.876914725 0.0
348 2 5.9081 23.876914725 2.9015
349 2 10.339175 21.318664725 0.0
350 2 10.339175 21.318664725 2.9015
351 2 8.86215 23.876914725 0.0
352 2 8.86215 23.876914725 2.9015
353 1 11.8162 20.466 1.45075
354 1 11.8162 20.466 4.35225
355 1 14.77025 20.466 1.45075
356 1 14.77025 20.466 4.35225
357 1 13.293225 23.02425 1.45075
358 1 13.293225 23.02425 4.35225
359 1 16.247275 23.02425 1.45075
360 1 16.247275 23.02425 4.35225
361 2 13.293225 21.318664725 0.0
362 2 13.293225 21.318664725 2.9015
363 2 11.8162 23.876914725 0.0
364 2 11.8162 23.876914725 2.9015
365 2 16.247275 21.318664725 0.0
366 2 16.247275 21.318664725 2.9015
367 2 14.77025 23.876914725 0.0
368 2 14.77025 23.876914725 2.9015
369 1 17.7243 20.466 1.45075
370 1 17.7243 20.466 4.35225
371 1 20.67835 20.466 1.45075
372 1 20.67835 20.466 4.35225
373 1 19.201325 23.02425 1.45075
374 1 19.201325 23.02425 4.35225
375 1 22.155375 23.02425 1.45075
376 1 22.155375 23.02425 4.35225
377 2 19.201325 21.318664725 0.0
378 2 19.201325 21.318664725 2.9015
379 2 17.7243 23.876914725 0.0
380 2 17.7243 23.876914725 2.9015
381 2 22.155375 21.318664725 0.0
382 2 22.155375 21.318664725 2.9015
383 2 20.67835 23.876914725 0.0
384 2 20.67835 23.876914725 2.9015
385 1 23.6324 20.466 1.45075
386 1 23.6324 20.466 4.35225
387 1 26.58645 20.466 1.45075
388 1 26.58645 20.466 4.35225
389 1 25.109425 23.02425 1.45075
390 1 25.109425 23.02425 4.35225
391 1 28.063475 23.02425 1.45075
392 1 28.063475 23.02425 4.35225
393 2 25.109425 21.318664725 0.0
394 2 25.109425 21.318664725 2.9015
395 2 23.6324 23.876914725 0.0
396 2 23.6324 23.876914725 2.9015
397 2 28.063475 21.318664725 0.0
398 2 28.063475 21.318664725 2.9015
399 2 26.58645 23.876914725 0.0
400 2 26.58645 23.876914725 2.9015
401 1 0.0 0.0 7.25375
402 1 0.0 0.0 10.15525
403 1 2.95405 0.0 7.25375
404 1 2.95405 0.0 10.15525
405 1 1.477025 2.55825 7.25375
406 1 1.477025 2.55825 10.15525
407 1 4.431075 2.55825 7.25375
408 1 4.431075 2.55825 10.15525
409 2 1.477025 0.852664725 5.803
410 2 1.477025 0.852664725 8.7045
411 2 0.0 3.410914725 5.803
412 2 0.0 3.410914725 8.7045
413 2 4.431075 0.852664725 5.803
414 2 4.431075 0.852664725 8.7045
415 2 2.95405 3.410914725 5.803
416 2 2.95405 3.410914725 8.7045
417 1 5.9081 0.0 7.25375
418 1 5.9081 0.0 10.15525
419 1 8.86215 0.0 7.25375
420 1 8.86215 0.0 10.15525
421 1 7.385125 2.55825 7.25375
422 1 7.385125 2.55825 10.15525
423 1 10.339175 2.55825 7.25375
424 1 10.339175 2.55825 10.15525
425 2 7.385125 0.852664725 5.803
426 2 7.385125 0.852664725 8.7045
427 2 5.9081 3.410914725 5.803
428 2 5.9081 3.410914725 8.7045
429 2 10.339175 0.852664725 5.803
430 2 10.339175 0.852664725 8.7045
431 2 8.86215 3.410914725 5.803
432 2 8.86215 3.410914725 8.7045
433 1 11.8162 0.0 7.25375
434 1 11.8162 0.0 10.15525
435 1 14.77025 0.0 7.25375
436 1 14.77025 0.0 10.15525
437 1 13.293225 2.55825 7.25375
438 1 13.293225 2.55825 10.15525
439 1 16.247275 2.55825 7.25375
440 1 16.247275 2.55825 10.15525
441 2 13.293225 0.852664725 5.803
442 2 13.293225 0.852664725 8.7045
443 2 11.8162 3.410914725 5.803
444 2 11.8162 3.410914725 8.7045
445 2 16.247275 0.852664725 5.803
446 2 16.247275 0.852664725 8.7045
447 2 14.77025 3.410914725 5.803
448 2 14.77025 3.410914725 8.7045
449 1 17.7243 0.0 7.25375
450 1 17.7243 0.0 10.15525
451 1 20.67835 0.0 7.25375
452 1 20.67835 0.0 10.15525
453 1 19.201325 2.55825 7.25375
454 1 19.201325 2.55825 10.15525
455 1 22.155375 2.55825 7.25375
456 1 22.155375 2.55825 10.15525
457 2 19.201325 0.852664725 5.803
458 2 19.201325 0.852664725 8.7045
459 2 17.7243 3.410914725 5.803
460 2 17.7243 3.410914725 8.7045
461 2 22.155375 0.852664725 5.803
462 2 22.155375 0.852664725 8.7045
463 2 20.67835 3.410914725 5.803
464 2 20.67835 3.410914725 8.7045
465 1 23.6324 0.0 7.25375
466 1 23.6324 0.0 10.15525
467 1 26.58645 0.0 7.25375
468 1 26.58645 0.0 10.15525
469 1 25.109425 2.55825 7.25375
470 1 25.109425 2.55825 10.15525
471 1 28.063475 2.55825 7.25375
472 1 28.063475 2.55825 10.15525
473 2 25.109425 0.852664725 5.803
474 2 25.109425 0.852664725 8.7045
475 2 23.6324 3.410914725 5.803
476 2 23.6324 3.410914725 8.7045
477 2 28.063475 0.852664725 5.803
478 2 28.063475 0.852664725 8.7045
479 2 26.58645 3.410914725 5.803
480 2 26.58645 3.410914725 8.7045
481 1 0.0 5.1165 7.25375
482 1 0.0 5.1165 10.15525
483 1 2.95405 5.1165 7.25375
484 1 2.95405 5.1165 10.15525
485 1 1.477025 7.67475 7.25375
486 1 1.477025 7.67475 10.15525
487 1 4.431075 7.67475 7.25375
488 1 4.431075 7.67475 10.15525
489 2 1.477025 5.969164725 5.803
490 2 1.477025 5.969164725 8.7045
491 2 0.0 8.527414725 5.803
492 2 0.0 8.527414725 8.7045
493 2 4.431075 5.969164725 5.803
494 2 4.431075 5.969164725 8.7045
495 2 2.95405 8.527414725 5.803
496 2 2.95405 8.527414725 8.7045
497 1 5.9081 5.1165 7.25375
498 1 5.9081 5.1165 10.15525
499 1 8.86215 5.1165 7.25375
500 1 8.86215 5.1165 10.15525
501 1 7.385125 7.67475 7.25375
502 1 7.385125 7.67475 10.15525
503 1 10.339175 7.67475 7.25375
504 1 10.339175 7.67475 10.15525
505 2 7.385125 5.969164725 5.803
506 2 7.385125 5.969164725 8.7045
507 2 5.9081 8.527414725 5.803
508 2 5.9081 8.527414725 8.7045
509 2 10.339175 5.969164725 5.803
510 2 10.339175 5.969164725 8.7045
511 2 8.86215 8.527414725 5.803
512 2 8.86215 8.527414725 8.7045
513 1 11.8162 5.1165 7.25375
514 1 11.8162 5.1165 10.15525
515 1 14.77025 5.1165 7.25375
516 1 14.77025 5.1165 10.15525
517 1 13.293225 7.67475 7.25375
518 1 13.293225 7.67475 10.15525
519 1 16.247275 7.67475 7.25375
520 1 16.247275 7.67475 10.15525
521 2 13.293225 5.969164725 5.803
522 2 13.293225 5.969164725 8.7045
523 2 11.8162 8.527414725 5.803
524 2 11.8162 8.527414725 8.7045
525 2 16.247275 5.969164725 5.803
526 2 16.247275 5.969164725 8.7045
527 2 14.77025 8.527414725 5.803
528 2 14.77025 8.527414725 8.7045
529 1 17.7243 5.1165 7.25375
530 1 17.7243 5.1165 10.15525
531 1 20.67835 5.1165 7.25375
532 1 20.67835 5.1165 10.15525
533 1 19.201325 7.67475 7.25375
534 1 19.201325 7.67475 10.15525
535 1 22.155375 7.67475 7.25375
536 1 22.155375 7.67475 10.15525
537 2 19.201325 5.969164725 5.803
538 2 19.201325 5.969164725 8.7045
539 2 17.7243 8.527414725 5.803
540 2 17.7243 8.527414725 8.7045
541 2 22.155375 5.969164725 5.803
542 2 22.155375 5.969164725 8.7045
543 2 20.67835 8.527414725 5.803
544 2 20.67835 8.527414725 8.7045
545 1 23.6324 5.1165 7.25375
546 1 23.6324 5.1165 10.15525
547 1 26.58645 5.1165 7.25375
548 1 26.58645 5.1165 10.15525
549 1 25.109425 7.67475 7.25375
550 1 25.109425 7.67475 10.15525
551 1 28.063475 7.67475 7.25375
552 1 28.063475 7.67475 10.15525
553 2 25.109425 5.969164725 5.803
554 2 25.109425 5.969164725 8.7045
555 2 23.6324 8.527414725 5.803
556 2 23.6324 8.527414725 8.7045
557 2 28.063475 5.969164725 5.803
558 2 28.063475 5.969164725 8.7045
559 2 26.58645 8.527414725 5.803
560 2 26.58645 8.527414725 8.7045
561 1 0.0 10.233 7.25375
562 1 0.0 10.233 10.15525
563 1 2.95405 10.233 7.25375
564 1 2.95405 10.233 10.15525
565 1 1.477025 12.79125 7.25375
566 1 1.477025 12.79125 10.15525
567 1 4.431075 12.79125 7.25375
568 1 4.431075 12.79125 10.15525
569 2 1.477025 11.085664725 5.803
570 2 1.477025 11.085664725 8.7045
571 2 0.0 13.643914725 5.803
572 2 0.0 13.643914725 8.7045
573 2 4.431075 11.085664725 5.803
574 2 4.431075 11.085664725 8.7045
575 2 2.95405 13.643914725 5.803
576 2 2.95405 13.643914725 8.7045
577 1 5.9081 10.233 7.25375
578 1 5.9081 10.233 10.15525
579 1 8.86215 10.233 7.25375
580 1 8.86215 10.233 10.15525
581 1 7.385125 12.79125 7.25375
582 1 7.385125 12.79125 10.15525
583 1 10.339175 12.79125 7.25375
584 1 10.339175 12.79125 10.15525
585 2 7.385125 11.085664725 5.803
586 2 7.385125 11.085664725 8.7045
587 2 5.9081 13.643914725 5.803
588 2 5.9081 13.643914725 8.7045
589 2 10.339175 11.085664725 5.803
590 2 10.339175 11.085664725 8.7045
591 2 8.86215 13.643914725 5.803
592 2 8.86215 13.643914725 8.7045
593 1 11.8162 10.233 7.25375
594 1 11.8162 10.233 10.15525
595 1 14.77025 10.233 7.25375
596 1 14.77025 10.233 10.15525
597 1 13.293225 12.79125 7.25375
598 1 13.293225 12.79125 10.15525
599 1 16.247275 12.79125 7.25375
600 1 16.247275 12.79125 10.15525
601 2 13.293225 11.085664725 5.803
602 2 13.293225 11.085664725 8.7045
603 2 11.8162 13.643914725 5.803
604 2 11.8162 13.643914725 8.7045
605 2 16.247275 11.085664725 5.803
606 2 16.247275 11.085664725 8.7045
607 2 14.77025 13.643914725 5.803
608 2 14.77025 13.643914725 8.7045
609 1 17.7243 10.233 7.25375
610 1 17.7243 10.233 10.15525
611 1 20.67835 10.233 7.25375
612 1 20.67835 10.233 10.15525
613 1 19.201325 12.79125 7.25375
614 1 19.201325 12.79125 10.15525
615 1 22.155375 12.79125 7.25375
616 1 22.155375 12.79125 10.15525
617 2 19.201325 11.085664725 5.803
618 2 19.201325 11.085664725 8.7045
619 2 17.7243 13.643914725 5.803
620 2 17.7243 13.643914725 8.7045
621 2 22.155375 11.085664725 5.803
622 2 22.155375 11.085664725 8.7045
623 2 20.67835 13.643914725 5.803
624 2 20.67835 13.643914725 8.7045
625 1 23.6324 10.233 7.25375
626 1 23.6324 10.233 10.15525
627 1 26.58645 10.233 7.25375
628 1 26.58645 10.233 10.15525
629 1 25.109425 12.79125 7.25375
630 1 25.109425 12.79125 10.15525
631 1 28.063475 12.79125 7.25375
632 1 28.063475 12.79125 10.15525
633 2 25.109425 11.085664725 5.803
634 2 25.109425 11.085664725 8.7045
635 2 23.6324 13.643914725 5.803
636 2 23.6324 13.643914725 8.7045
637 2 28.063475 11.085664725 5.803
638 2 28.063475 11.085664725 8.7045
639 2 26.58645 13.643914725 5.803
640 2 26.58645 13.643914725 8.7045
641 1 0.0 15.3495 7.25375
642 1 0.0 15.3495 10.15525
643 1 2.95405 15.3495 7.25375
644 1 2.95405 15.3495 10.15525
645 1 1.477025 17.90775 7.25375
646 1 1.477025 17.90775 10.15525
647 1 4.431075 17.90775 7.25375
648 1 4.431075 17.90775 10.15525
649 2 1.477025 16.202164725 5.803
650 2 1.477025 16.202164725 8.7045
651 2 0.0 18.760414725 5.803
652 2 0.0 18.760414725 8.7045
653 2 4.431075 16.202164725 5.803
654 2 4.431075 16.202164725 8.7045
655 2 2.95405 18.760414725 5.803
656 2 2.95405 18.760414725 8.7045
657 1 5.9081 15.3495 7.25375
658 1 5.9081 15.3495 10.15525
659 1 8.86215 15.3495 7.25375
660 1 8.86215 15.3495 10.15525
661 1 7.385125 17.90775 7.25375
662 1 7.385125 17.90775 10.15525
663 1 10.339175 17.90775 7.25375
664 1 10.339175 17.90775 10.15525
665 2 7.385125 16.202164725 5.803
666 2 7.385125 16.202164725 8.7045
667 2 5.9081 18.760414725 5.803
668 2 5.9081 18.760414725 8.7045
669 2 10.339175 16.202164725 5.803
670 2 10.339175 16.202164725 8.7045
671 2 8.86215 18.760414725 5.803
672 2 8.86215 18.760414725 8.7045
673 1 11.8162 15.3495 7.25375
674 1 11.8162 15.3495 10.15525
675 1 14.77025 15.3495 7.25375
676 1 14.77025 15.3495 10.15525
677 1 13.293225 17.90775 7.25375
678 1 13.293225 17.90775 10.15525
679 1 16.247275 17.90775 7.25375
680 1 16.247275 17.90775 10.15525
681 2 13.293225 16.202164725 5.803
682 2 13.293225 16.202164725 8.7045
683 2 11.8162 18.760414725 5.803
684 2 11.8162 18.760414725 8.7045
685 2 16.247275 16.202164725 5.803
686 2 16.247275 16.202164725 8.7045
687 2 14.77025 18.760414725 5.803
688 2 14.77025 18.760414725 8.7045
689 1 17.7243 15.3495 7.25375
690 1 17.7243 15.3495 10.15525
691 1 20.67835 15.3495 7.25375
692 1 20.67835 15.3495 10.15525
693 1 19.201325 17.90775 7.25375
694 1 19.201325 17.90775 10.15525
695 1 22.155375 17.90775 7.25375
696 1 22.155375 17.90775 10.15525
697 2 19.201325 16.202164725 5.803
698 2 19.201325 16.202164725 8.7045
699 2 17.7243 18.760414725 5.803
700 2 17.7243 18.760414725 8.7045
701 2 22.155375 16.202164725 5.803
702 2 22.155375 16.202164725 8.7045
703 2 20.67835 18.760414725 5.803
704 2 20.67835 18.760414725 8.7045
705 1 23.6324 15.3495 7.25375
706 1 23.6324 15.3495 10.15525
707 1 26.58645 15.3495 7.25375
708 1 26.58645 15.3495 10.15525
709 1 25.109425 17.90775 7.25375
710 1 25.109425 17.90775 10.15525
711 1 28.063475 17.90775 7.25375
712 1 28.063475 17.90775 10.15525
713 2 25.109425 16.202164725 5.803
714 2 25.109425 16.202164725 8.7045
715 2 23.6324 18.760414725 5.803
716 2 23.6324 18.760414725 8.7045
717 2 28.063475 16.202164725 5.803
718 2 28.063475 16.202164725 8.7045
719 2 26.58645 18.760414725 5.803
720 2 26.58645 18.760414725 8.7045
721 1 0.0 20.466 7.25375
722 1 0.0 20.466 10.15525
723 1 2.95405 20.466 7.25375
724 1 2.95405 20.466 10.15525
725 1 1.477025 23.02425 7.25375
726 1 1.477025 23.02425 10.15525
727 1 4.431075 23.02425 7.25375
728 1 4.431075 23.02425 10.15525
729 2 1.477025 21.318664725 5.803
730 2 1.477025 21.318664725 8.7045
731 2 0.0 23.876914725 5.803
732 2 0.0 23.876914725 8.7045
733 2 4.431075 21.318664725 5.803
734 2 4.431075 21.318664725 8.7045
735 2 2.95405 23.876914725 5.803
736 2 2.95405 23.876914725 8.7045
737 1 5.9081 20.466 7.25375
738 1 5.9081 20.466 10.15525
739 1 8.86215 20.466 7.25375
740 1 8.86215 20.466 10.15525
741 1 7.385125 23.02425 7.25375
742 1 7.385125 23.02425 10.15525
743 1 10.339175 23.02425 7.25375
744 1 10.339175 23.02425 10.15525
745 2 7.385125 21.318664725 5.803
746 2 7.385125 21.318664725 8.7045
747 2 5.9081 23.876914725 5.803
748 2 5.9081 23.876914725 8.7045
749 2 10.339175 21.318664725 5.803
750 2 10.339175 21.318664725 8.7045
751 2 8.86215 23.876914725 5.803
752 2 8.86215 23.876914725 8.7045
753 1 11.8162 20.466 7.25375
754 1 11.8162 20.466 10.15525
755 1 14.77025 20.466 7.25375
756 1 14.77025 20.466 10.15525
757 1 13.293225 23.02425 7.25375
758 1 13.293225 23.02425 10.15525
759 1 16.247275 23.02425 7.25375
760 1 16.247275 23.02425 10.15525
761 2 13.293225 21.318664725 5.803
762 2 13.293225 21.318664725 8.7045
763 2 11.8162 23.876914725 5.803
764 2 11.8162 23.876914725 8.7045
765 2 16.247275 21.318664725 5.803
766 2 16.247275 21.318664725 8.7045
767 2 14.77025 23.876914725 5.803
768 2 14.77025 23.876914725 8.7045
769 1 17.7243 20.466 7.25375
770 1 17.7243 20.466 10.15525
771 1 20.67835 20.466 7.25375
772 1 20.67835 20.466 10.15525
773 1 19.201325 23.02425 7.25375
774 1 19.201325 23.02425 10.15525
775 1 22.155375 23.02425 7.25375
776 1 22.155375 23.02425 10.15525
777 2 19.201325 21.318664725 5.803
778 2 19.201325 21.318664725 8.7045
779 2 17.7243 23.876914725 5.803
780 2 17.7243 23.876914725 8.7045
781 2 22.155375 21.318664725 5.803
782 2 22.155375 21.318664725 8.7045
783 2 20.67835 23.876914725 5.803
784 2 20.67835 23.876914725 8.7045
785 1 23.6324 20.466 7.25375
786 1 23.6324 20.466 10.15525
787 1 26.58645 20.466 7.25375
788 1 26.58645 20.466 10.15525
789 1 25.109425 23.02425 7.25375
790 1 25.109425 23.02425 10.15525
791 1 28.063475 23.02425 7.25375
792 1 28.063475 23.02425 10.15525
793 2 25.109425 21.318664725 5.803
794 2 25.109425 21.318664725 8.7045
795 2 23.6324 23.876914725 5.803
796 2 23.6324 23.876914725 8.7045
797 2 28.063475 21.318664725 5.803
798 2 28.063475 21.318664725 8.7045
799 2 26.58645 23.876914725 5.803
800 2 26.58645 23.876914725 8.7045
801 1 0.0 0.0 13.05675
802 1 0.0 0.0 15.95825
803 1 2.95405 0.0 13.05675
804 1 2.95405 0.0 15.95825
805 1 1.477025 2.55825 13.05675
806 1 1.477025 2.55825 15.95825
807 1 4.431075 2.55825 13.05675
808 1 4.431075 2.55825 15.95825
809 2 1.477025 0.852664725 11.606
810 2 1.477025 0.852664725 14.5075
811 2 0.0 3.410914725 11.606
812 2 0.0 3.410914725 14.5075
813 2 4.431075 0.852664725 11.606
814 2 4.431075 0.852664725 14.5075
815 2 2.95405 3.410914725 11.606
816 2 2.95405 3.410914725 14.5075
817 1 5.9081 0.0 13.05675
818 1 5.9081 0.0 15.95825
819 1 8.86215 0.0 13.05675
820 1 8.86215 0.0 15.95825
821 1 7.385125 2.55825 13.05675
822 1 7.385125 2.55825 15.95825
823 1 10.339175 2.55825 13.05675
824 1 10.339175 2.55825 15.95825
825 2 7.385125 0.852664725 11.606
826 2 7.385125 0.852664725 14.5075
827 2 5.9081 3.410914725 11.606
828 2 5.9081 3.410914725 14.5075
829 2 10.339175 0.852664725 11.606
830 2 10.339175 0.852664725 14.5075
831 2 8.86215 3.410914725 11.606
832 2 8.86215 3.410914725 14.5075
833 1 11.8162 0.0 13.05675
834 1 11.8162 0.0 15.95825
835 1 14.77025 0.0 13.05675
836 1 14.77025 0.0 15.95825
837 1 13.293225 2.55825 13.05675
838 1 13.293225 2.55825 15.95825
839 1 16.247275 2.55825 13.05675
840 1 16.247275 2.55825 15.95825
841 2 13.293225 0.852664725 11.606
842 2 13.293225 0.852664725 14.5075
843 2 11.8162 3.410914725 11.606
844 2 11.8162 3.410914725 14.5075
845 2 16.247275 0.852664725 11.606
846 2 16.247275 0.852664725 14.5075
847 2 14.77025 3.410914725 11.606
848 2 14.77025 3.410914725 14.5075
849 1 17.7243 0.0 13.05675
850 1 17.7243 0.0 15.95825
851 1 20.67835 0.0 13.05675
852 1 20.67835 0.0 15.95825
853 1 19.201325 2.55825 13.05675
854 1 19.201325 2.55825 15.95825
855 1 22.155375 2.55825 13.05675
856 1 22.155375 2.55825 15.95825
857 2 19.201325 0.852664725 11.606
858 2 19.201325 0.852664725 14.5075
859 2 17.7243 3.410914725 11.606
860 2 17.7243 3.410914725 14.5075
861 2 22.155375 0.852664725 11.606
862 2 22.155375 0.852664725 14.5075
863 2 20.67835 3.410914725 11.606
864 2 20.67835 3.410914725 14.5075
865 1 23.6324 0.0 13.05675
866 1 23.6324 0.0 15.95825
867 1 26.58645 0.0 13.05675
868 1 26.58645 0.0 15.95825
869 1 25.109425 2.55825 13.05675
870 1 25.109425 2.55825 15.95825
871 1 28.063475 2.55825 13.05675
872 1 28.063475 2.55825 15.95825
873 2 25.109425 0.852664725 11.606
874 2 25.109425 0.852664725 14.5075
875 2 23.6324 3.410914725 11.606
876 2 23.6324 3.410914725 14.5075
877 2 28.063475 0.852664725 11.606
878 2 28.063475 0.852664725 14.5075
879 2 26.58645 3.410914725 11.606
880 2 26.58645 3.410914725 14.5075
881 1 0.0 5.1165 13.05675
882 1 0.0 5.1165 15.95825
883 1 2.95405 5.1165 13.05675
884 1 2.95405 5.1165 15.95825
885 1 1.477025 7.67475 13.05675
886 1 1.477025 7.67475 15.95825
887 1 4.431075 7.67475 13.05675
888 1 4.431075 7.67475 15.95825
889 2 1.477025 5.969164725 11.606
890 2 1.477025 5.969164725 14.5075
891 2 0.0 8.527414725 11.606
892 2 0.0 8.527414725 14.5075
893 2 4.431075 5.969164725 11.606
894 2 4.431075 5.969164725 14.5075
895 2 2.95405 8.527414725 11.606
896 2 2.95405 8.527414725 14.5075
897 1 5.9081 5.1165 13.05675
898 1 5.9081 5.1165 15.95825
899 1 8.86215 5.1165 13.05675
900 1 8.86215 5.1165 15.95825
901 1 7.385125 7.67475 13.05675
902 1 7.385125 7.67475 15.95825
903 1 10.339175 7.67475 13.05675
904 1 10.339175 7.67475 15.95825
905 2 7.385125 5.969164725 11.606
906 2 7.385125 5.969164725 14.5075
907 2 5.9081 8.527414725 11.606
908 2 5.9081 8.527414725 14.5075
909 2 10.339175 5.969164725 11.606
910 2 10.339175 5.969164725 14.5075
911 2 8.86215 8.527414725 11.606
912 2 8.86215 8.527414725 14.5075
913 1 11.8162 5.1165 13.05675
914 1 11.8162 5.1165 15.95825
915 1 14.77025 5.1165 13.05675
916 1 14.77025 5.1165 15.95825
917 1 13.293225 7.67475 13.05675
918 1 13.293225 7.67475 15.95825
919 1 16.247275 7.67475 13.05675
920 1 16.247275 7.67475 15.95825
921 2 13.293225 5.969164725 11.606
922 2 13.293225 5.969164725 14.5075
923 2 11.8162 8.527414725 11.606
924 2 11.8162 8.527414725 14.5075
925 2 16.247275 5.969164725 11.606
926 2 16.247275 5.969164725 14.5075
927 2 14.77025 8.527414725 11.606
928 2 14.77025 8.527414725 14.5075
929 1 17.7243 5.1165 13.05675
930 1 17.7243 5.1165 15.95825
931 1 20.67835 5.1165 13.05675
932 1 20.67835 5.1165 15.95825
933 1 19.201325 7.67475 13.05675
934 1 19.201325 7.67475 15.95825
935 1 22.155375 7.67475 13.05675